
#(C) 2019 by FIZ Karlsruhe - Leibniz Institute for Information Infrastructure, and the U.S. Secretary of
#Commerce on behalf of the United States.  All rights reserved.
data_676338-ICSD
_database_code_ICSD 676338
_audit_creation_date 2019-02-01
_chemical_name_systematic 'Tantalum hydride'
_chemical_formula_structural 'Ta H6'
_chemical_formula_sum 'H6 Ta1'
_exptl_crystal_density_diffrn 16.63
_cell_measurement_pressure 300000000.
_publ_section_title
'Pressure-stabilized superconductive ionic tantalum hydrides'
loop_
_citation_id
_citation_journal_full
_citation_year
_citation_journal_volume
_citation_page_first
_citation_page_last
_citation_journal_id_ASTM
primary 'Inorganic Chemistry' 2017 56 3901 3908 INOCAJ
loop_
_publ_author_name
'Zhuang, Quan'
'Jin, Xilian'
'Cui, Tian'
'Ma, Yanbin'
'Lv, Qianqian'
'Li, Ying'
'Zhang, Huadi'
'Meng, Xing'
'Bao, Kuo'
_cell_length_a 8.747
_cell_length_b 4.137
_cell_length_c 4.127
_cell_angle_alpha 90
_cell_angle_beta 90
_cell_angle_gamma 90
_cell_volume 149.34
_cell_formula_units_Z 8
_symmetry_space_group_name_H-M 'F d d 2'
_symmetry_Int_Tables_number 43
loop_
_symmetry_equiv_pos_site_id
_symmetry_equiv_pos_as_xyz
1 'x+1/4, -y+1/4, z+1/4'
2 '-x+1/4, y+1/4, z+1/4'
3 '-x, -y, z'
4 'x, y, z'
5 'x+1/4, -y+3/4, z+3/4'
6 '-x+1/4, y+3/4, z+3/4'
7 '-x, -y+1/2, z+1/2'
8 'x, y+1/2, z+1/2'
9 'x+3/4, -y+1/4, z+3/4'
10 '-x+3/4, y+1/4, z+3/4'
11 '-x+1/2, -y, z+1/2'
12 'x+1/2, y, z+1/2'
13 'x+3/4, -y+3/4, z+1/4'
14 '-x+3/4, y+3/4, z+1/4'
15 '-x+1/2, -y+1/2, z'
16 'x+1/2, y+1/2, z'
loop_
_atom_type_symbol
_atom_type_oxidation_number
H0+ 0
Ta0+ 0
loop_
_atom_site_label
_atom_site_type_symbol
_atom_site_symmetry_multiplicity
_atom_site_Wyckoff_symbol
_atom_site_fract_x
_atom_site_fract_y
_atom_site_fract_z
_atom_site_B_iso_or_equiv
_atom_site_occupancy
_atom_site_attached_hydrogens
H1 H0+ 16 b -0.308 0.36 -0.478 1. 1. 0
H2 H0+ 16 b -0.435 0.882 -0.505 1. 1. 0
H3 H0+ 16 b -0.157 0.056 -0.171 1. 1. 0
Ta1 Ta0+ 8 a -0.75 0.75 -0.86 1. 1. 0
#End of TTdata_676338-ICSD