
#(C) 2019 by FIZ Karlsruhe - Leibniz Institute for Information Infrastructure, and the U.S. Secretary of
#Commerce on behalf of the United States.  All rights reserved.
data_671139-ICSD
_database_code_ICSD 671139
_audit_creation_date 2017-02-01
_chemical_name_systematic 'Antimony Hydride'
_chemical_formula_structural 'H3 Sb'
_chemical_formula_sum 'H3 Sb1'
_exptl_crystal_density_diffrn 10.58
_cell_measurement_pressure 170000000.
_publ_section_title

;
Stabilization and highly metallic properties of heavy group-V hydrides at high
pressures
;
loop_
_citation_id
_citation_journal_full
_citation_year
_citation_journal_volume
_citation_page_first
_citation_page_last
_citation_journal_id_ASTM
primary 'Physical Review B: Condensed Matter and Materials Physics' 2015 92
224109-1 224109-5 PRBMDO
loop_
_publ_author_name
'Abe, Kazutaka'
'Ashcroft, N.W.'
_cell_length_a 4.19
_cell_length_b 3.249
_cell_length_c 5.755
_cell_angle_alpha 90
_cell_angle_beta 90
_cell_angle_gamma 90
_cell_volume 78.34
_cell_formula_units_Z 4
_symmetry_space_group_name_H-M 'P n m a'
_symmetry_Int_Tables_number 62
loop_
_symmetry_equiv_pos_site_id
_symmetry_equiv_pos_as_xyz
1 'x+1/2, y, -z+1/2'
2 'x, -y+1/2, z'
3 '-x+1/2, y+1/2, z+1/2'
4 '-x, -y, -z'
5 '-x+1/2, -y, z+1/2'
6 '-x, y+1/2, -z'
7 'x+1/2, -y+1/2, -z+1/2'
8 'x, y, z'
loop_
_atom_type_symbol
_atom_type_oxidation_number
Sb0+ 0
H0+ 0
loop_
_atom_site_label
_atom_site_type_symbol
_atom_site_symmetry_multiplicity
_atom_site_Wyckoff_symbol
_atom_site_fract_x
_atom_site_fract_y
_atom_site_fract_z
_atom_site_B_iso_or_equiv
_atom_site_occupancy
_atom_site_attached_hydrogens
Sb1 Sb0+ 4 c 0.219 0.25 0.095 1. 1. 0
H1 H0+ 4 c 0.163 0.25 0.443 1. 1. 0
H2 H0+ 4 c 0.092 0.25 0.75 1. 1. 0
H3 H0+ 4 c 0.391 0.25 0.792 1. 1. 0
#End of TTdata_671139-ICSD